composition,formation_energy,band_gap,delta_e
H1 Zr1,-0.321120561092088,0.0,-0.321120561092088
Au1 N1,1.57789847232825,0.0,1.57789847232825
Gd1 Se1,-1.79548777375,0.0,-1.79548777375
B1 Ti1,0.721563708106868,0.0,0.721563708106868
Al1 Sc1,-0.4495093125,0.0,-0.4495093125
Al1 Rh1,-1.09711632,0.0,-1.09711632
H1 Rh1,0.0415147039079127,0.0,0.0415147039079127
Dy1 Rh1,-0.873495153333335,0.0,-0.873495153333335
As1 Ce1,-1.48604430125,0.0,-1.48604430125
Ba1 Te1,-1.79088726166666,1.708,-1.79088726166666
Pr1 Se1,-1.84847688375,0.0,-1.84847688375
Br1 Cu1,-0.240067168707918,0.422,-0.240067168707918
Al1 Sb1,-0.1677793025,1.376,-0.1677793025
Nd1 Se1,-1.8421691925,0.0,-1.8421691925
N1 Np1,-1.21245721204675,0.0,-1.21245721204675
Bi1 Tm1,-0.801530597499999,0.0,-0.801530597499999
C1 Pu1,0.101179361249999,0.0,0.101179361249999
Bi1 Y1,-0.91421378,0.0,-0.91421378
Sc1 Sn1,0.366223044074399,0.0,0.366223044074399
Ga1 Ir1,-0.3878277475,0.0,-0.3878277475
Cd1 Gd1,-0.32606712375,0.0,-0.32606712375
Gd1 Rh1,-0.80484165375,0.0,-0.80484165375
Re1 Ti1,-0.418388054393132,0.0,-0.418388054393132
Ni1 Sc1,-0.515840327499999,0.0,-0.515840327499999
Cu1 Pd1,-0.126312169999999,0.0,-0.126312169999999
Bi1 Pr1,-0.98033922125,0.0,-0.98033922125
La1 N1,-0.832210132671753,0.0,-0.832210132671753
N1 Os1,1.45457860732825,0.0,1.45457860732825
Al1 Re1,0.0126065124999997,0.0,0.0126065124999997
C1 Pd1,1.48466575125,0.0,1.48466575125
Cd1 Tb1,0.00399461266666501,0.0,0.00399461266666501
Eu1 Se1,-2.206884395,1.806,-2.206884395
Gd1 O1,-2.88756785668938,0.0,-2.88756785668938
Np1 S1,-1.50850443638168,0.0,-1.50850443638168
Ag1 C1,2.2487658525,0.0,2.2487658525
Sb1 U1,-0.204518074999999,0.0,-0.204518074999999
Eu1 Tl1,-0.5622534625,0.0,-0.5622534625
Ir1 Sc1,-1.0301461825,0.0,-1.0301461825
C1 Th1,-0.28022727375,0.0,-0.28022727375
As1 Sn1,-0.107249905925602,0.0,-0.107249905925602
Cu1 Gd1,-0.22178002875,0.0,-0.22178002875
O1 Pu1,-2.69164421541103,0.0,-2.69164421541103
Ba1 Cd1,-0.327498125,0.0,-0.327498125
Pt1 V1,-0.54486387,0.0,-0.54486387
B1 N1,-1.35086916767175,4.062,-1.35086916767175
Ag1 Dy1,-0.335554942083335,0.0,-0.335554942083335
Eu1 S1,-2.47033469700668,2.068,-2.47033469700668
Os1 Si1,-0.3434495625,0.0,-0.3434495625
I1 Tl1,-0.762285488714159,2.172,-0.762285488714159
Ag1 Ga1,0.04734372875,0.0,0.04734372875
Ba1 Hg1,-0.491164262483134,0.0,-0.491164262483134
Ir1 Tm1,-0.92117172,0.0,-0.92117172
Pt1 Zr1,-0.912491534999999,0.0,-0.912491534999999
Gd1 Tl1,-0.36448837625,0.0,-0.36448837625
Te1 Th1,-1.09758697166667,0.0,-1.09758697166667
Sm1,0.0241746225000004,0.0,0.0241746225000004
P1 Pu1,-1.29009484947997,0.0,-1.29009484947997
Cs1 I1,-1.65211376621416,3.926,-1.65211376621416
Eu1 Te1,-1.82720172166666,1.484,-1.82720172166666
F1 Rb1,-2.73451094456555,7.051,-2.73451094456555
Ge1 Sc1,0.252137795,0.0,0.252137795
H1 Ni1,-0.0498987760920881,0.0,-0.0498987760920881
Nd1 Tl1,-0.39427055,0.0,-0.39427055
Pt1 Zn1,-0.56883208,0.0,-0.56883208
Ag1 Er1,-0.34775013375,0.0,-0.34775013375
As1 Lu1,-1.47154841,0.0,-1.47154841
Ga1 Ru1,-0.2982196625,0.0,-0.2982196625
Np1 Te1,-0.536375376041667,0.0,-0.536375376041667
Fe1 Rh1,-0.04855258,0.0,-0.04855258
Dy1 Zn1,-0.344135988333335,0.0,-0.344135988333335
Ga1 Rh1,-0.689778852500001,0.0,-0.689778852500001
Be1 Ni1,-0.47001106,0.0,-0.47001106
La1 P1,-1.69857021447997,0.0,-1.69857021447997
Ir1 Yb1,-0.320504415,0.0,-0.320504415
Ag1 Gd1,-0.3190237025,0.0,-0.3190237025
Cl1 Na1,-2.05010813823539,5.246,-2.05010813823539
Bi1 Ga1,0.00436810000000021,0.0,0.00436810000000021
As1 Ga1,0.0941217299999999,0.0,0.0941217299999999
C1 Nb1,-0.46718480875,0.0,-0.46718480875
As1 U1,-0.582944645,0.0,-0.582944645
Gd1 Zn1,-0.337417238750001,0.0,-0.337417238750001
Ir1 Y1,-0.784881452500001,0.0,-0.784881452500001
Mn1 S1,-0.631385183903229,0.0,-0.631385183903229
Pu1 Ru1,-0.160821685,0.0,-0.160821685
Ba1 Zn1,-0.165115005,0.0,-0.165115005
Ir1 Zr1,-0.766821889999999,0.0,-0.766821889999999
Rh1 Tb1,-0.511459007333335,0.0,-0.511459007333335
Ag1,0.00134922250000002,0.0,0.00134922250000002
Ag1 La1,-0.26489468875,0.0,-0.26489468875
Ag1 Cd1,-0.0670945487500001,0.0,-0.0670945487500001
Bi1 La1,-1.0646814975,0.0,-1.0646814975
Bi1 O1,-0.733636390439377,0.0,-0.733636390439377
Np1 Se1,-1.062620334375,0.0,-1.062620334375
Cd1 Eu1,-0.47124383,0.0,-0.47124383
P1 U1,-1.08693061697997,0.0,-1.08693061697997
C1 Ti1,-0.804124935643131,0.0,-0.804124935643131
As1 Sm1,-1.52922738625,0.0,-1.52922738625
Eu1 Zn1,-0.376359535,0.0,-0.376359535
Ge1 Sb1,0.14166275,0.0,0.14166275
Cu1 Er1,-0.278675555,0.0,-0.278675555
Al1 Gd1,-0.39157313875,0.0,-0.39157313875
Cu1 Dy1,-0.251309238333335,0.0,-0.251309238333335
Rh1 Sc1,-1.0268732575,0.0,-1.0268732575
In1 Pd1,-0.50714155,0.0,-0.50714155
Ba1 S1,-2.22464121200668,2.249,-2.22464121200668
Al1 As1,-0.4878186225,1.627,-0.4878186225
Ag1 Ce1,-0.244193677500001,0.0,-0.244193677500001
Dy1 Pd1,-0.895766673333335,0.0,-0.895766673333335
Dy1 Mg1,-0.0793982929166699,0.0,-0.0793982929166699
Ag1 Zn1,-0.05211821875,0.0,-0.05211821875
Cu1 Ho1,-0.267041156666665,0.0,-0.267041156666665
N1 Pr1,-0.632338841421753,0.0,-0.632338841421753
Rh1 Zr1,-0.752098479999999,0.0,-0.752098479999999
Er1 N1,-0.928840277671752,0.0,-0.928840277671752
As1 Te1,0.0984507258333349,0.0,0.0984507258333349
Be1 Cu1,-0.095546165,0.0,-0.095546165
La1 Zn1,-0.31597558,0.0,-0.31597558
F1 Tl1,-1.89994869206555,2.222,-1.89994869206555
Cu1 I1,-0.246013716214159,1.195,-0.246013716214159
Ge1 Th1,-0.773461942500001,0.0,-0.773461942500001
Mn1 N1,-0.303236019568304,0.0,-0.303236019568304
N1 Tm1,-1.92932887267175,0.367999999999999,-1.92932887267175
H1 Rb1,-0.158702791092088,2.953,-0.158702791092088
Al1 Y1,-0.4167731625,0.0,-0.4167731625
Rh1 Sm1,-0.715152323750001,0.0,-0.715152323750001
Li1 Rh1,-0.19418297,0.0,-0.19418297
S1 Se1,0.245450462993322,0.0,0.245450462993322
Gd1 Te1,-1.33856377541667,0.0,-1.33856377541667
Si1 Sr1,-0.1080829125,0.0,-0.1080829125
Ga1 P1,-0.534168956979969,1.754,-0.534168956979969
Ru1 V1,-0.225129024999999,0.0,-0.225129024999999
As1 Th1,-1.1127584225,0.0,-1.1127584225
Pu1 Se1,-1.545967675,0.0,-1.545967675
As1 Np1,-0.681358101875,0.0,-0.681358101875
Be1 Rh1,-0.615992299999999,0.0,-0.615992299999999
Li1 S1,-0.659525632006678,0.0,-0.659525632006678
Al1 Sn1,0.210924821574399,0.0,0.210924821574399
In1 Rh1,-0.431758600000001,0.0,-0.431758600000001
Te1 Zr1,-0.900015851666665,0.0,-0.900015851666665
In1 Pr1,-0.50448219375,0.0,-0.50448219375
S1 Sm1,-2.17072847575668,0.0,-2.17072847575668
P1 Yb1,-0.871957869479968,0.0,-0.871957869479968
N1 Sm1,-1.58647004142175,0.0,-1.58647004142175
Ga1 Sb1,-0.167087975,0.366,-0.167087975
La1 Mg1,-0.115284109583335,0.0,-0.115284109583335
Rh1 Tm1,-0.96668025,0.0,-0.96668025
Be1 Pd1,-0.586192649999999,0.0,-0.586192649999999
Cu1 Zn1,-0.0905041150000003,0.0,-0.0905041150000003
Ag1 Li1,-0.23234209875,0.0,-0.23234209875
Be1 Ti1,-0.163735476893132,0.0,-0.163735476893132
Ru1 Sc1,-0.5332486175,0.0,-0.5332486175
Sc1 Zn1,-0.3792789225,0.0,-0.3792789225
Eu1 N1,-0.577645952671753,0.0,-0.577645952671753
Ag1 Tb1,0.00103122891666541,0.0,0.00103122891666541
Np1 Sb1,-0.191958601874999,0.0,-0.191958601874999
O1 Zr1,-2.42349611293938,0.0,-2.42349611293938
Sb1 Th1,-0.910114742499999,0.0,-0.910114742499999
As1 Pu1,-0.8398461375,0.0,-0.8398461375
Gd1 S1,-2.16719525575668,0.0,-2.16719525575668
As1 Zr1,-1.0789838575,0.0,-1.0789838575
In1 Ni1,-0.114484045,0.0,-0.114484045
Cu1 Eu1,-0.222214665,0.0,-0.222214665
Rh1 Y1,-0.8422203175,0.0,-0.8422203175
Gd1 Hg1,-0.447707746233135,0.0,-0.447707746233135
C1 La1,0.56274349625,0.0,0.56274349625
Sb1 Sm1,-1.18180901125,0.0,-1.18180901125
Ce1 Se1,-1.84959564875,0.0,-1.84959564875
Cd1 Sr1,-0.335898525,0.0,-0.335898525
Ru1 Ti1,-0.788424706893132,0.0,-0.788424706893132
B2 V1,-0.732018986666667,0.0,-0.732018986666667
N1 Tc1,0.233250494828248,0.0,0.233250494828248
In1 Sm1,-0.50060990375,0.0,-0.50060990375
Cl2 V1,-1.36275829374608,1.198,-1.36275829374608
Bi1 Sm1,-0.94681631625,0.0,-0.94681631625
Dy1 Th1,0.145762746666666,0.0,0.145762746666666
K1 S1,-0.437808899506678,0.0,-0.437808899506678
O1 Pt1,0.339314437060622,0.0,0.339314437060622
P1 Sm1,-1.69987506822997,0.0,-1.69987506822997
Ru1 Zr1,-0.642828645,0.0,-0.642828645
Li1 Pb1,-0.278829395,0.0,-0.278829395
Li1 Pd1,-0.431157489999999,0.0,-0.431157489999999
Se1 Sm1,-1.82085795875,0.0,-1.82085795875
H1 K1,-0.197464608592088,3.656,-0.197464608592088
Ni1 Ti1,-0.377978861893132,0.0,-0.377978861893132
Mg1 Sc1,-0.0425309470833346,0.0,-0.0425309470833346
In1 Yb1,-0.51875509,0.0,-0.51875509
Li1 P1 Sr1,-0.988264852986646,0.95,-0.988264852986646
Al1 Au1,-0.24622367,0.0,-0.24622367
La1 Tl1,-0.421915032499999,0.0,-0.421915032499999
In1 Tm1,-0.427594115,0.0,-0.427594115
Ag1 Sc1,-0.28691686625,0.0,-0.28691686625
Er1 Hg1,-0.449834547483134,0.0,-0.449834547483134
Ag1 Nd1,-0.26962120625,0.0,-0.26962120625
N1 Pm1,-1.54153666392175,0.0,-1.54153666392175
Bi1 Ce1,-0.74125120125,0.0,-0.74125120125